LAMMPS (22 Jul 2025)
OMP_NUM_THREADS environment is not set. Defaulting to 1 thread.
  using 1 OpenMP thread(s) per MPI task
# --- Initialization ---
units           metal
dimension       3
boundary        p p p
atom_style      atomic

# --- Atom Information ---
region          box block 0 80 0 80 0 80
create_box      1 box
Created orthogonal box = (0 0 0) to (80 80 80)
  1 by 1 by 1 MPI processor grid
create_atoms    1 random 200 12345 NULL
Created 200 atoms
  using lattice units in orthogonal box = (0 0 0) to (80 80 80)
  create_atoms CPU = 0.000 seconds
mass            1 39.95

# --- Lennard-Jones Potential ---
pair_style      lj/cut 2.5
# Argon: epsilon=0.01032, sigma=3.405
pair_coeff      1 1 0.01032 3.405 2.5
minimize 1.0e-4 1.0e-6 100 1000
Generated 0 of 0 mixed pair_coeff terms from geometric mixing rule
Neighbor list info ...
  update: every = 1 steps, delay = 0 steps, check = yes
  max neighbors/atom: 2000, page size: 100000
  master list distance cutoff = 4.5
  ghost atom cutoff = 4.5
  binsize = 2.25, bins = 36 36 36
  1 neighbor lists, perpetual/occasional/extra = 1 0 0
  (1) pair lj/cut, perpetual
      attributes: half, newton on
      pair build: half/bin/atomonly/newton
      stencil: half/bin/3d
      bin: standard
Per MPI rank memory allocation (min/avg/max) = 4.446 | 4.446 | 4.446 Mbytes
   Step          Temp          E_pair         E_mol          TotEng         Press     
         0   0              139149.61      0              139149.61      1742350.2    
         8   0              12.593984      0              12.593984      165.85165    
Loop time of 9.1628e-05 on 1 procs for 8 steps with 200 atoms

85.1% CPU use with 1 MPI tasks x 1 OpenMP threads

Minimization stats:
  Stopping criterion = quadratic factors are zero
  Energy initial, next-to-last, final = 
      139149.608280002   12.5939836341355   12.5939836341355
  Force two-norm initial, final = 2128276.9 56.520092
  Force max component initial, final = 1338750.6 20.563712
  Final line search alpha, max atom move = 0.0048629354 0.1
  Iterations, force evaluations = 8 10

MPI task timing breakdown:
Section |  min time  |  avg time  |  max time  |%varavg| %total
---------------------------------------------------------------
Pair    | 8.372e-06  | 8.372e-06  | 8.372e-06  |   0.0 |  9.14
Neigh   | 0          | 0          | 0          |   0.0 |  0.00
Comm    | 7.318e-06  | 7.318e-06  | 7.318e-06  |   0.0 |  7.99
Output  | 0          | 0          | 0          |   0.0 |  0.00
Modify  | 0          | 0          | 0          |   0.0 |  0.00
Other   |            | 7.594e-05  |            |       | 82.88

Nlocal:            200 ave         200 max         200 min
Histogram: 1 0 0 0 0 0 0 0 0 0
Nghost:             69 ave          69 max          69 min
Histogram: 1 0 0 0 0 0 0 0 0 0
Neighs:             16 ave          16 max          16 min
Histogram: 1 0 0 0 0 0 0 0 0 0

Total # of neighbors = 16
Ave neighs/atom = 0.08
Neighbor list builds = 0
Dangerous builds = 0
velocity all create 300 4928459 rot yes dist gaussian

# --- Neighbor list ---
neighbor        2.0 bin

timestep 0.001
thermo 100
thermo_style custom step pe etotal press temp

compute ke all ke/atom
dump during all custom 1000 dump.during id type x y z vx vy vz c_ke

# --- EQUILIBRATION (gas phase) ---
fix 1 all npt temp 300.0 300.0 $(10000.0*dt) iso 3.0 3.0 $(1000.0*dt)
fix 1 all npt temp 300.0 300.0 10 iso 3.0 3.0 $(1000.0*dt)
fix 1 all npt temp 300.0 300.0 10 iso 3.0 3.0 1
run 100000
Generated 0 of 0 mixed pair_coeff terms from geometric mixing rule
Per MPI rank memory allocation (min/avg/max) = 3.321 | 3.321 | 3.321 Mbytes
   Step         PotEng         TotEng         Press           Temp     
         8   12.593984      20.310814      181.95025      300          
       100   0              15.925058      32.049431      619.10355    
       200   0              15.060257      27.899241      585.48351    
       300   0              14.195729      24.094196      551.87406    
       400   0              13.495247      21.259776      524.6421     
       500   0              12.839341      18.799506      499.14302    
       600   0              12.22299       16.653313      475.18176    
       700   0              11.683978      14.906092      454.22707    
       800   0              11.219414      13.495675      436.16664    
       900   0              10.622941      12.082364      412.97813    
      1000   0              10.250018      11.074514      398.48035    
      1100   0              9.912855       10.209821      385.37278    
      1200   0              9.602163       9.4511229      373.2943     
      1300   0              9.3135069      8.7782947      362.07249    
      1400   0              9.0445058      8.1785737      351.61478    
      1500   0              8.7935041      7.6423383      341.85682    
      1600   0              8.5591157      7.1616404      332.74473    
      1700   0              8.3401072      6.729723       324.23054    
      1800   0              8.1353731      6.3408084      316.27128    
      1900   0              7.9439252      5.9899471      308.82854    
      2000   0              7.7595102      5.6687659      301.65921    
      2100   0              7.5909318      5.3798179      295.10555    
      2200   0              7.43401        5.1192449      289.00505    
      2300   0              7.2877969      4.8836583      283.32086    
      2400   0              7.1514889      4.6702281      278.02174    
      2500   0              7.0244167      4.4765991      273.08167    
      2600   0              6.9060174      4.3007913      268.47877    
      2700   0              6.7958071      4.1411158      264.19423    
      2800   0              6.6933591      3.9961115      260.21146    
      2900   0              6.5982899      3.8645008      256.51554    
      3000   0              6.5102484      3.7451563      253.09283    
      3100   0              6.4289104      3.6370778      249.93073    
      3200   0              6.3539734      3.5393731      247.01748    
      3300   0              6.2851536      3.4512444      244.34203    
      3400   0              6.222183       3.3719751      241.89398    
      3500   0              6.1648077      3.3009203      239.66346    
      3600   0              6.1127854      3.2374972      237.64103    
      3700   0              6.0658836      3.1811774      235.81768    
      3800   0              6.0238781      3.1314793      234.18467    
      3900   0              5.9865509      3.0879622      232.73353    
      4000   0              5.9536887      3.0502197      231.45598    
      4100   0              5.925081       3.0178746      230.34383    
      4200   0              5.9005188      2.9905735      229.38895    
      4300   0              5.8797928      2.9679824      228.5832     
      4400   0              5.8626917      2.9497823      227.91838    
      4500   0              5.8490014      2.9356649      227.38615    
      4600   0              5.8385032      2.9253293      226.97802    
      4700   0              5.8309733      2.9184782      226.68529    
      4800   0              5.8261819      2.9148157      226.49902    
      4900   0              5.8238923      2.9140445      226.41001    
      5000   0              5.8238618      2.915864       226.40882    
      5100   0              5.8258411      2.9199695      226.48577    
      5200   0              5.8295753      2.926051       226.63094    
      5300   0              5.8379994      2.9344629      226.95844    
      5400   0              5.8431804      2.9419361      227.15985    
      5500   0              5.8494489      2.9505704      227.40355    
      5600   0              5.8565672      2.9600739      227.68028    
      5700   0              5.8642968      2.9701524      227.98078    
      5800   0              5.8724007      2.9805108      228.29582    
      5900   0              5.8806457      2.9908566      228.61636    
      6000   0              5.8888045      3.0009021      228.93354    
      6100   0              5.8966576      3.0103676      229.23884    
      6200   0              5.9039957      3.0189843      229.52411    
      6300   0              5.9106211      3.0264968      229.78168    
      6400   0              5.9163495      3.0326665      230.00438    
      6500   0              5.9210116      3.0372738      230.18563    
      6600   0              5.9244547      3.040121       230.31948    
      6700   0              5.926544       3.0410348      230.4007     
      6800   0              5.9271645      3.0398699      230.42483    
      6900   0              5.9262231      3.0365112      230.38823    
      7000   0              5.923651       3.0308782      230.28823    
      7100   0              5.9194069      3.0229292      230.12324    
      7200   0              5.9134809      3.0126658      229.89286    
      7300   0              5.9058994      3.0001389      229.59812    
      7400   0              5.8967303      2.985455       229.24166    
      7500   0              5.88609        2.9687833      228.82801    
      7600   0              5.8741501      2.9503627      228.36383    
      7700   0              5.8611452      2.9305089      227.85825    
      7800   0              5.8473797      2.9096209      227.32311    
      7900   0              5.8332349      2.8881862      226.77321    
      8000   0              5.8165813      2.8646218      226.12578    
      8100   0              5.7937516      2.8373019      225.23826    
      8200   0              5.7782857      2.8140865      224.637      
      8300   0              5.7646437      2.7930301      224.10665    
      8400   0              5.7537376      2.7751986      223.68267    
      8500   0              5.7465853      2.7617703      223.40462    
      8600   0              5.7443113      2.7540436      223.31621    
      8700   0              5.7481504      2.7534534      223.46546    
      8800   0              5.7594511      2.7615944      223.90479    
      8900   0              5.7796718      2.7802434      224.69089    
      9000   0              5.810356       2.8113653      225.88377    
      9100   0              5.8530558      2.8570684      227.54377    
      9200   0              5.9091659      2.9194531      229.72511    
      9300   0              5.979616       3.0002741      232.46393    
      9400   0              6.064397       3.1003443      235.75989    
      9500   0              6.1619811      3.218692       239.55357    
      9600   0              6.2688462      3.3516906      243.70806    
      9700   0              6.3794395      3.4926223      248.0075     
      9800   0              6.4868055      3.6321421      252.18146    
      9900   0              6.5837033      3.7596485      255.94847    
     10000   0              6.6636742      3.8649388      259.05742    
     10100   0              6.721576       3.9393745      261.30842    
     10200   0              6.7535321      3.9762693      262.55075    
     10300   0              6.7566103      3.9708119      262.67041    
     10400   0              6.7286662      3.9201239      261.58406    
     10500   0              6.6687498      3.8240243      259.25474    
     10600   0              6.5783239      3.6867293      255.73934    
     10700   0              6.4630317      3.5188069      251.25723    
     10800   0              6.3336746      3.3373176      246.22834    
     10900   0              6.2044613      3.1620237      241.20503    
     11000   0              6.0885195      3.0089555      236.69767    
     11100   0              5.9939071      2.8861703      233.01952    
     11200   0              5.9229886      2.7943816      230.26248    
     11300   0              5.8744087      2.7302746      228.37389    
     11400   0              5.8453204      2.689406       227.24305    
     11500   0              5.8327083      2.6676555      226.75274    
     11600   0              5.8338854      2.6616337      226.7985     
     11700   0              5.8465616      2.6686239      227.2913     
     11800   0              5.8687604      2.6863935      228.1543     
     11900   0              5.8987115      2.713011       229.31868    
     12000   0              5.9347662      2.7467067      230.72035    
     12100   0              5.9753473      2.7857851      232.29798    
     12200   0              6.122789       2.871447       238.02994    
     12300   0              6.1558351      2.9018883      239.31464    
     12400   0              6.1894768      2.9331455      240.62249    
     12500   0              6.2228218      2.9641777      241.91882    
     12600   0              6.2550548      2.9940136      243.17191    
     12700   0              6.2854463      3.0217669      244.35341    
     12800   0              6.3133606      3.0466512      245.43861    
     12900   0              6.3382604      3.0679914      246.40662    
     13000   0              6.3597094      3.0852328      247.24047    
     13100   0              6.3773722      3.0979473      247.92713    
     13200   0              6.3910131      3.105836       248.45743    
     13300   0              6.4004952      3.1087311      248.82606    
     13400   0              6.4057788      3.1065962      249.03146    
     13500   0              6.4069213      3.0995255      249.07588    
     13600   0              6.4111728      3.0894393      249.24116    
     13700   0              6.4013971      3.0694717      248.86112    
     13800   0              6.3828238      3.0423854      248.13906    
     13900   0              6.3655227      3.0139087      247.46646    
     14000   0              6.3462836      2.9834323      246.71852    
     14100   0              6.3259208      2.9519464      245.9269     
     14200   0              6.3053123      2.920488       245.12572    
     14300   0              6.2853771      2.8901105      244.35072    
     14400   0              6.2670514      2.8618568      243.63829    
     14500   0              6.2512666      2.8367371      243.02464    
     14600   0              6.2389312      2.8157139      242.54509    
     14700   0              6.2309186      2.7996982      242.23359    
     14800   0              6.2280619      2.7895526      242.12253    
     14900   0              6.2311523      2.7861021      242.24267    
     15000   0              6.2409381      2.790145       242.62311    
     15100   0              6.2581195      2.80246        243.29105    
     15200   0              6.28333        2.8237983      244.27114    
     15300   0              6.3170954      2.8548496      245.5838     
     15400   0              6.3597619      2.8961699      247.24251    
     15500   0              6.4113866      2.9480589      249.24948    
     15600   0              6.4715947      3.0103829      251.59013    
     15700   0              6.5394213      3.0823581      254.22696    
     15800   0              6.6131779      3.1623315      257.09433    
     15900   0              6.690395       3.2476272      260.09622    
     16000   0              6.7678837      3.3345259      263.10868    
     16100   0              6.8419222      3.4184166      265.987      
     16200   0              6.9085158      3.4940936      268.5759     
     16300   0              6.9636487      3.5561103      270.71925    
     16400   0              7.0034478      3.5990901      272.26648    
     16500   0              7.0242427      3.6179508      273.0749     
     16600   0              7.0225796      3.6081015      273.01025    
     16700   0              6.9953406      3.5657877      271.9513     
     16800   0              6.9401923      3.4888441      269.80736    
     16900   0              6.8566061      3.3780616      266.55786    
     17000   0              6.7474455      3.2389502      262.31412    
     17100   0              6.6204052      3.0827796      257.37529    
     17200   0              6.4877519      2.9251475      252.21825    
     17300   0              6.3679324      2.7824555      247.56014    
     17400   0              6.2588159      2.6596862      243.31813    
     17500   0              6.1763341      2.5678914      240.11156    
     17600   0              6.1218227      2.506573       237.99237    
     17700   0              6.093635       2.4727307      236.89654    
     17800   0              6.0890594      2.4629042      236.71866    
     17900   0              6.1052738      2.4740097      237.34901    
     18000   0              6.13957        2.5034093      238.68231    
     18100   0              6.189231       2.5486549      240.61294    
     18200   0              6.2513271      2.6071648      243.02699    
     18300   0              6.3225885      2.6759796      245.79735    
     18400   0              6.3994363      2.7516893      248.78489    
     18500   0              6.4781855      2.8305647      251.84635    
     18600   0              6.5553477      2.9088502      254.84611    
     18700   0              6.6743432      2.9981868      259.47219    
     18800   0              6.735198       3.0547246      261.83799    
     18900   0              6.780521       3.0992737      263.59996    
     19000   0              6.8181192      3.1352653      265.06163    
     19100   0              6.8476395      3.1621355      266.20927    
     19200   0              6.8689893      3.1796614      267.03927    
     19300   0              6.8822944      3.1879203      267.55651    
     19400   0              6.8878714      3.187259       267.77333    
     19500   0              6.8862117      3.1782687      267.70881    
     19600   0              6.8779715      3.1617633      267.38846    
     19700   0              6.8639629      3.1387563      266.84386    
     19800   0              6.8451426      3.1104312      266.1122     
     19900   0              6.8225927      3.0781034      265.23555    
     20000   0              6.7974922      3.0431733      264.25974    
     20100   0              6.768611       3.0047173      263.13695    
     20200   0              6.7390642      2.9654935      261.98829    
     20300   0              6.7685674      2.9496601      263.13526    
     20400   0              6.7303704      2.9018087      261.65031    
     20500   0              6.6961967      2.8587605      260.32177    
     20600   0              6.6675881      2.8220075      259.20958    
     20700   0              6.6458104      2.7927174      258.36295    
     20800   0              6.6305361      2.7649827      257.76914    
     20900   0              6.6109737      2.7383754      257.00863    
     21000   0              6.6012106      2.7219874      256.62908    
     21100   0              6.6019857      2.7164385      256.65922    
     21200   0              6.6138241      2.7221969      257.11945    
     21300   0              6.6370709      2.7396293      258.02319    
     21400   0              6.6718907      2.7690083      259.37685    
     21500   0              6.7182197      2.8104636      261.17794    
     21600   0              6.7756629      2.863866       263.4111     
     21700   0              6.8433443      2.9286443      266.04229    
     21800   0              6.9197402      3.0035592      269.01226    
     21900   0              7.002551       3.0864876      272.23162    
     22000   0              7.0886806      3.1743025      275.58       
     22100   0              7.1743691      3.2629242      278.91123    
     22200   0              7.2554649      3.3475633      282.06391    
     22300   0              7.3277529      3.4230942      284.87419    
     22400   0              7.3872295      3.4844381      287.1864     
     22500   0              7.4302441      3.5268467      288.85864    
     22600   0              7.4447402      3.5408233      289.42219    
     22700   0              7.443473       3.5310314      289.37293    
     22800   0              7.4169353      3.4915894      288.34125    
     22900   0              7.3632731      3.4210246      286.25507    
     23000   0              7.282218       3.3202595      283.10397    
     23100   0              7.1764722      3.1940292      278.99299    
     23200   0              7.0529881      3.0517772      274.19241    
     23300   0              6.9228829      2.9066928      269.13444    
     23400   0              6.7991216      2.7724925      264.32308    
     23500   0              6.6929626      2.6596734      260.19604    
     23600   0              6.6114865      2.5736867      257.02857    
     23700   0              6.5574181      2.5156151      254.9266     
     23800   0              6.5304606      2.4840085      253.8786     
     23900   0              6.5287784      2.4764679      253.8132     
     24000   0              6.5499194      2.4904689      254.63508    
     24100   0              6.5911378      2.5235472      256.23749    
     24200   0              6.6493504      2.573126       258.50057    
     24300   0              6.7209795      2.6362298      261.28523    
     24400   0              6.8018866      2.7092797      264.43058    
     24500   0              6.8875253      2.7881128      267.75987    
     24600   0              6.9733193      2.8682713      271.09521    
     24700   0              7.0551453      2.9454773      274.27628    
     24800   0              7.129733       3.0161059      277.17595    
     24900   0              7.1948476      3.0774813      279.70735    
     25000   0              7.2492378      3.127931       281.82183    
     25100   0              7.2924321      3.1666498      283.50106    
     25200   0              7.3244938      3.1934805      284.74749    
     25300   0              7.3458133      3.2087054      285.57631    
     25400   0              7.3104661      3.1891353      284.20215    
     25500   0              7.2809588      3.1620173      283.05502    
     25600   0              7.2663168      3.1338142      282.4858     
     25700   0              7.238309       3.096176       281.39696    
     25800   0              7.2076213      3.0560585      280.20395    
     25900   0              7.1756731      3.0150161      278.96193    
     26000   0              7.1418022      2.9715196      277.64516    
     26100   0              7.0534496      2.9024449      274.21036    
     26200   0              7.0092667      2.8503582      272.4927     
     26300   0              6.9718166      2.805144       271.03679    
     26400   0              6.9416041      2.7681364      269.86224    
     26500   0              6.9213879      2.7413283      269.07632    
     26600   0              6.9121528      2.725482       268.71729    
     26700   0              6.914561       2.7211013      268.81092    
     26800   0              6.9104495      2.7160072      268.65108    
     26900   0              6.9265289      2.7249874      269.27618    
     27000   0              6.9548566      2.7459802      270.37745    
     27100   0              6.9950287      2.7787175      271.93918    
     27200   0              7.0461688      2.8225413      273.92731    
     27300   0              7.1068621      2.8763016      276.28682    
     27400   0              7.1751122      2.9382615      278.94012    
     27500   0              7.2483565      3.0060483      281.78757    
     27600   0              7.3235633      3.0766889      284.71131    
     27700   0              7.3974116      3.1467486      287.58225    
     27800   0              7.4665186      3.2125538      290.26885    
     27900   0              7.5276605      3.2704485      292.64581    
     28000   0              7.5779387      3.3170275      294.60043    
     28100   0              7.6148663      3.3493055      296.03603    
     28200   0              7.6363879      3.3648183      296.8727     
     28300   0              7.6340292      3.3578429      296.78101    
     28400   0              7.618485       3.3329029      296.17671    
     28500   0              7.5841779      3.2878633      294.84298    
     28600   0              7.5313112      3.2234854      292.78774    
     28700   0              7.4612425      3.1419395      290.06374    
     28800   0              7.3768992      3.0471014      286.7848     
     28900   0              7.2830129      2.9445611      283.13487    
     29000   0              7.1858921      2.8411171      279.3592     
     29100   0              7.0926228      2.743773       275.73326    
     29200   0              7.0099453      2.6586155      272.51908    
     29300   0              6.943306       2.5900783      269.92841    
     29400   0              6.8964568      2.5408408      268.10709    
     29500   0              6.8716016      2.5122203      267.14082    
     29600   0              6.8698286      2.5047363      267.07189    
     29700   0              6.8915388      2.5185822      267.9159     
     29800   0              6.9366915      2.553873       269.67126    
     29900   0              7.0047736      2.6106098      272.31803    
     30000   0              7.094447       2.6883085      275.80417    
     30100   0              7.2029056      2.7852803      280.02062    
     30200   0              7.3251716      2.8977184      284.77384    
     30300   0              7.4538363      3.0190761      289.77581    
     30400   0              7.5656661      3.1305149      294.12332    
     30500   0              7.6717155      3.233437       298.2461     
     30600   0              7.760599       3.3198815      301.70154    
     30700   0              7.8282255      3.3846431      304.33059    
     30800   0              7.8728568      3.4251202      306.06568    
     30900   0              7.8946515      3.4410296      306.91297    
     31000   0              7.8951109      3.4338622      306.93083    
     31100   0              7.8766636      3.4063822      306.21368    
     31200   0              7.8424183      3.3622529      304.88235    
     31300   0              7.7960011      3.3057355      303.07783    
     31400   0              7.7413779      3.2413791      300.9543     
     31500   0              7.7037724      3.181189       299.49235    
     31600   0              7.6375517      3.1069388      296.91794    
     31700   0              7.5754953      3.0380574      294.50544    
     31800   0              7.5204773      2.9771808      292.36655    
     31900   0              7.4743969      2.9258747      290.57513    
     32000   0              7.4382878      2.8848306      289.17135    
     32100   0              7.3902446      2.8452708      287.30362    
     32200   0              7.3700501      2.8201522      286.51854    
     32300   0              7.3608114      2.8056073      286.15937    
     32400   0              7.3619226      2.8009371      286.20257    
     32500   0              7.3726038      2.8053479      286.61781    
     32600   0              7.3919311      2.8179659      287.36918    
     32700   0              7.4188401      2.8378235      288.4153     
     32800   0              7.4521203      2.8638372      289.7091     
     32900   0              7.4904148      2.8947874      291.19784    
     33000   0              7.5322326      2.9293139      292.82355    
     33100   0              7.5759789      2.9659286      294.52424    
     33200   0              7.6200022      3.0030509      296.23569    
     33300   0              7.662653       3.0390603      297.89379    
     33400   0              7.7023473      3.0723609      299.43694    
     33500   0              7.7376256      3.1014487      300.80843    
     33600   0              7.7672011      3.1249732      301.95821    
     33700   0              7.7899896      3.1417838      302.84413    
     33800   0              7.8051199      3.1509568      303.43234    
     33900   0              7.8119204      3.1517955      303.69672    
     34000   0              7.792496       3.13582        302.94157    
     34100   0              7.7714691      3.1089444      302.12413    
     34200   0              7.7408278      3.0727656      300.93291    
     34300   0              7.7004148      3.0273444      299.36182    
     34400   0              7.6499896      2.9727162      297.40148    
     34500   0              7.5893267      2.9089933      295.04315    
     34600   0              7.5185293      2.8366616      292.29082    
     34700   0              7.4385923      2.7570759      289.18319    
     34800   0              7.3520788      2.6729893      285.81988    
     34900   0              7.2635534      2.5887774      282.37837    
     35000   0              7.1808876      2.5103821      279.16464    
     35100   0              7.1046212      2.4399737      276.19971    
     35200   0              7.0469471      2.3864918      273.95757    
     35300   0              7.0144096      2.3547343      272.69263    
     35400   0              7.012537       2.3487541      272.61983    
     35500   0              7.0460526      2.3723378      273.92279    
     35600   0              7.1187022      2.429136       276.74712    
     35700   0              7.2319472      2.5217537      281.14964    
     35800   0              7.3823114      2.6493626      286.99521    
     35900   0              7.5570441      2.8032957      293.78813    
     36000   0              7.740273       2.970065       300.91135    
     36100   0              7.9659399      3.1525657      309.68439    
     36200   0              8.105392       3.2856985      315.10573    
     36300   0              8.2140278      3.3902232      319.32907    
     36400   0              8.2906577      3.4632305      322.30814    
     36500   0              8.3340311      3.5023827      323.99432    
     36600   0              8.3453536      3.5080273      324.4345     
     36700   0              8.3306056      3.486524       323.86116    
     36800   0              8.2923342      3.4408584      322.37331    
     36900   0              8.2337244      3.3748994      320.09479    
     37000   0              8.1588749      3.2935174      317.18494    
     37100   0              8.0728457      3.20244        313.84046    
     37200   0              7.9813847      3.1077939      310.28482    
     37300   0              7.8903712      3.0154391      306.74657    
     37400   0              7.8051606      2.9303283      303.43392    
     37500   0              7.7300754      2.8561213      300.5149     
     37600   0              7.6681939      2.7951421      298.1092     
     37700   0              7.6214277      2.7486029      296.29111    
     37800   0              7.5907607      2.7169345      295.0989     
     37900   0              7.5765131      2.7000891      294.54501    
     38000   0              7.5785384      2.6977441      294.62374    
     38100   0              7.5963231      2.7093933      295.31514    
     38200   0              7.6548111      2.7435439      297.58892    
     38300   0              7.6973045      2.777416       299.2409     
     38400   0              7.7513044      2.8219386      301.3402     
     38500   0              7.814651       2.8754148      303.80287    
     38600   0              7.8846384      2.9356127      306.52371    
     38700   0              7.9580846      2.9997687      309.379      
     38800   0              8.0314952      3.0646889      312.23292    
     38900   0              8.1012967      3.1269448      314.94653    
     39000   0              8.1640851      3.1831205      317.38749    
     39100   0              8.2168342      3.2300552      319.43817    
     39200   0              8.2570249      3.2650341      321.00062    
     39300   0              8.282688       3.285898       321.9983     
     39400   0              8.2923705      3.2910731      322.37472    
     39500   0              8.2850458      3.2795278      322.08997    
     39600   0              8.2599811      3.2506734      321.11555    
     39700   0              8.2165826      3.2042295      319.42839    
     39800   0              8.1517082      3.1382982      316.90633    
     39900   0              8.0678197      3.0546996      313.64507    
     40000   0              7.964461       2.9545421      309.62689    
     40100   0              7.8433112      2.84042        304.91706    
     40200   0              7.7090323      2.7175544      299.69683    
     40300   0              7.5701227      2.5940885      294.29657    
     40400   0              7.4380571      2.4798318      289.16238    
     40500   0              7.3247297      2.383899       284.75666    
     40600   0              7.2398871      2.3128982      281.45831    
     40700   0              7.1902359      2.270811       279.52807    
     40800   0              7.1644296      2.254218       278.52482    
     40900   0              7.1944355      2.2749846      279.69133    
     41000   0              7.2715552      2.3333038      282.68944    
     41100   0              7.3982373      2.4328339      287.61435    
     41200   0              7.5713997      2.5739375      294.34622    
     41300   0              7.7765087      2.7477179      302.32005    
     41400   0              8.047432       2.9545884      312.85248    
     41500   0              8.2239039      3.114773       319.71301    
     41600   0              8.3615025      3.2422453      325.0623     
     41700   0              8.4574343      3.3316858      328.79175    
     41800   0              8.5162695      3.3857218      331.07903    
     41900   0              8.5443229      3.4096391      332.16964    
     42000   0              8.546945       3.4084152      332.27158    
     42100   0              8.5281527      3.3860744      331.54101    
     42200   0              8.4911762      3.3460615      330.10351    
     42300   0              8.4390857      3.2917557      328.07843    
     42400   0              8.3752049      3.226785       325.595      
     42500   0              8.3032613      3.1550812      322.79812    
     42600   0              8.2273038      3.08072        319.84519    
     42700   0              8.1514588      3.0076391      316.89663    
     42800   0              8.0796191      2.9393418      314.10379    
     42900   0              8.0151675      2.878682       311.59816    
     43000   0              7.9608048      2.8277794      309.48475    
     43100   0              7.9185044      2.7880569      307.84028    
     43200   0              7.8937752      2.7616809      306.87891    
     43300   0              7.8770148      2.744752       306.22733    
     43400   0              7.874652       2.7403866      306.13547    
     43500   0              7.8865661      2.7484308      306.59864    
     43600   0              7.9122292      2.7684784      307.59633    
     43700   0              7.9506853      2.7998372      309.09135    
     43800   0              8.0004995      2.8414572      311.02793    
     43900   0              8.0597074      2.891844       313.3297     
     44000   0              8.1257979      2.9489905      315.89904    
     44100   0              8.1957634      3.0103653      318.61902    
     44200   0              8.2662337      3.0729846      321.35863    
     44300   0              8.33368        3.1335705      323.98067    
     44400   0              8.3946475      3.1887681      326.35085    
     44500   0              8.4459589      3.235369       328.34564    
     44600   0              8.4848441      3.2704899      329.85734    
     44700   0              8.5089738      3.2916707      330.79541    
     44800   0              8.5164025      3.2968849      331.08421    
     44900   0              8.5054515      3.2844832      330.65847    
     45000   0              8.4757962      3.2532911      329.50559    
     45100   0              8.4247634      3.2004885      327.52164    
     45200   0              8.3452407      3.1242341      324.43011    
     45300   0              8.2429213      3.0282614      320.45233    
     45400   0              8.120353       2.9160106      315.68736    
     45500   0              7.9836747      2.7940448      310.37385    
     45600   0              7.8428353      2.6717172      304.89857    
     45700   0              7.7100117      2.5593311      299.7349     
     45800   0              7.596828       2.4657162      295.33477    
     45900   0              7.5121397      2.3967968      292.04242    
     46000   0              7.4615549      2.3557932      290.07588    
     46100   0              7.448347       2.3444162      289.56241    
     46200   0              7.4746609      2.3640846      290.58539    
     46300   0              7.5420806      2.4165156      293.20641    
     46400   0              7.6509046      2.503229       297.43705    
     46500   0              7.8337213      2.6325622      304.54425    
     46600   0              8.0150994      2.7773811      311.59551    
     46700   0              8.2085146      2.9340428      319.11473    
     46800   0              8.3707035      3.0793802      325.42       
     46900   0              8.5070413      3.2046448      330.72028    
     47000   0              8.6079012      3.2989747      334.64131    
     47100   0              8.6718291      3.3592607      337.12658    
     47200   0              8.7027258      3.3881649      338.32772    
     47300   0              8.7063948      3.3908455      338.47036    
     47400   0              8.6883837      3.3726392      337.77016    
     47500   0              8.6532817      3.3381616      336.40553    
     47600   0              8.6048417      3.2912884      334.52237    
     47700   0              8.5463436      3.2354284      332.2482     
     47800   0              8.5020754      3.181057       330.52722    
     47900   0              8.4285664      3.1127801      327.66948    
     48000   0              8.354565       3.0450274      324.7926     
     48100   0              8.2832262      2.9806279      322.01923    
     48200   0              8.2174038      2.9220019      319.46031    
     48300   0              8.1595318      2.8710945      317.21048    
     48400   0              8.1115605      2.829369       315.34554    
     48500   0              8.0749484      2.7978497      313.92221    
     48600   0              8.0506905      2.7771893      312.97916    
     48700   0              8.0393607      2.7677358      312.5387     
     48800   0              8.0411433      2.7695794      312.608      
     48900   0              8.0558426      2.782567       313.17945    
     49000   0              8.0828624      2.8062798      314.22987    
     49100   0              8.0709667      2.819396       313.76742    
     49200   0              8.1052914      2.8498572      315.10182    
     49300   0              8.14892        2.8887775      316.79793    
     49400   0              8.2001276      2.9348271      318.78868    
     49500   0              8.2650342      2.9891547      321.312      
     49600   0              8.322353       3.0418297      323.54032    
     49700   0              8.3794002      3.0948917      325.75809    
     49800   0              8.4332641      3.1456387      327.85211    
     49900   0              8.4810558      3.191286       329.71006    
     50000   0              8.5012291      3.2164108      330.49432    
     50100   0              8.5154836      3.2311086      331.04848    
     50200   0              8.5180812      3.2333327      331.14947    
     50300   0              8.4993305      3.2170615      330.42051    
     50400   0              8.4635128      3.1849028      329.02806    
     50500   0              8.4092443      3.135843       326.91832    
     50600   0              8.3354611      3.069364       324.04992    
     50700   0              8.2420272      2.9860085      320.41758    
     50800   0              8.1307401      2.8882175      316.09117    
     50900   0              8.0063854      2.7810476      311.25675    
     51000   0              7.8770659      2.6720801      306.22931    
     51100   0              7.7531462      2.5701387      301.4118     
     51200   0              7.6451396      2.4833858      297.21294    
     51300   0              7.5574775      2.4159601      293.80498    
     51400   0              7.5033767      2.374567       291.70175    
     51500   0              7.4846985      2.3613234      290.97562    
     51600   0              7.5045683      2.3784366      291.74808    
     51700   0              7.5650924      2.42801        294.10101    
     51800   0              7.6663819      2.5113658      298.03875    
     51900   0              7.8042483      2.6270359      303.39845    
     52000   0              7.9678354      2.7681312      309.75808    
     52100   0              8.1399885      2.9214327      316.45071    
     52200   0              8.3019338      3.0704267      322.74651    
     52300   0              8.4393566      3.2008075      328.08897    
     52400   0              8.5452051      3.3041068      332.20394    
     52500   0              8.6183091      3.3774775      335.04593    
     52600   0              8.6604177      3.4213852      336.68295    
     52700   0              8.6739763      3.4375249      337.21005    
     52800   0              8.6612331      3.4278532      336.71465    
     52900   0              8.6243003      3.3945447      335.27885    
     53000   0              8.5586118      3.3375585      332.72514    
     53100   0              8.4796437      3.2644655      329.65517    
     53200   0              8.3869427      3.1793967      326.05132    
     53300   0              8.2734075      3.0825602      321.63752    
     53400   0              8.16877        2.9894349      317.56962    
     53500   0              8.0682968      2.9017308      313.66362    
     53600   0              7.9772674      2.8238859      310.12475    
     53700   0              7.8976871      2.7575981      307.03099    
     53800   0              7.835067       2.7064322      304.59656    
     53900   0              7.7909706      2.67162        302.88227    
     54000   0              7.7663196      2.6535927      301.92393    
     54100   0              7.7613534      2.6523724      301.73087    
     54200   0              7.7757604      2.6677009      302.29096    
     54300   0              7.8086741      2.6990276      303.57051    
     54400   0              7.8585502      2.745368       305.5095     
     54500   0              7.9229796      2.8050752      308.01426    
     54600   0              7.9985381      2.875605       310.95168    
     54700   0              8.0807956      2.9533948      314.14952    
     54800   0              8.1645791      3.0339734      317.4067     
     54900   0              8.2862003      3.1242416      322.13485    
     55000   0              8.3488399      3.1874407      324.57003    
     55100   0              8.3985058      3.239068       326.50085    
     55200   0              8.4326139      3.2762571      327.82683    
     55300   0              8.3848373      3.2656547      325.96947    
     55400   0              8.3650481      3.2509423      325.20014    
     55500   0              8.3305244      3.2221209      323.858      
     55600   0              8.2827985      3.1808543      322.0026     
     55700   0              8.22396        3.1293869      319.71519    
     55800   0              8.1566224      3.070451       317.09737    
     55900   0              8.0838461      3.0071308      314.26812    
     56000   0              8.0089998      2.9426782      311.35839    
     56100   0              7.9355637      2.8802991      308.50348    
     56200   0              7.8669084      2.8229487      305.83443    
     56300   0              7.8061031      2.7731866      303.47056    
     56400   0              7.7558019      2.7331254      301.51505    
     56500   0              7.7182348      2.7044817      300.05459    
     56600   0              7.6952983      2.6887122      299.16291    
     56700   0              7.6887118      2.6872018      298.90685    
     56800   0              7.7001873      2.7014591      299.35297    
     56900   0              7.7315313      2.7332566      300.5715     
     57000   0              7.7845511      2.7846101      302.6327     
     57100   0              7.8605928      2.857429       305.5889     
     57200   0              7.9595713      2.9526539      309.4368     
     57300   0              8.0786164      3.0688769      314.06481    
     57400   0              8.2109745      3.2009202      319.21037    
     57500   0              8.3461578      3.3393704      324.46576    
     57600   0              8.4717932      3.4718611      329.34997    
     57700   0              8.5763047      3.5856874      333.41297    
     57800   0              8.6508887      3.6702735      336.3125     
     57900   0              8.6900086      3.7183609      337.83333    
     58000   0              8.6908355      3.7259788      337.86548    
     58100   0              8.6525177      3.6919832      336.37583    
     58200   0              8.5719641      3.6150592      333.24422    
     58300   0              8.4583719      3.5035464      328.8282     
     58400   0              8.3164881      3.3654362      323.31232    
     58500   0              8.1572473      3.2134303      317.12167    
     58600   0              7.9950769      3.0626295      310.81712    
     58700   0              7.8448867      2.9270717      304.97832    
     58800   0              7.7181789      2.8162789      300.05242    
     58900   0              7.6207575      2.7339695      296.26505    
     59000   0              7.553104       2.6792126      293.63495    
     59100   0              7.512387       2.6486139      292.05203    
     59200   0              7.4945278      2.6381564      291.35774    
     59300   0              7.4954954      2.6441972      291.39536    
     59400   0              7.5118039      2.6637604      292.02937    
     59500   0              7.5405212      2.6944458      293.14578    
     59600   0              7.5790825      2.7342018      294.64489    
     59700   0              7.6250881      2.7811034      296.43341    
     59800   0              7.6761647      2.833195       298.41907    
     59900   0              7.7299112      2.8884135      300.50852    
     60000   0              7.7839191      2.9445888      302.60813    
     60100   0              7.8358432      2.9995021      304.62674    
     60200   0              7.8834915      3.0509783      306.47912    
     60300   0              7.9249101      3.0969881      308.08931    
     60400   0              7.9584471      3.1357403      309.3931     
     60500   0              7.9827912      3.1657542      310.3395     
     60600   0              7.9969889      3.1859111      310.89145    
     60700   0              8.0004503      3.1954872      311.02601    
     60800   0              7.992949       3.1941748      310.73439    
     60900   0              7.9746266      3.1820957      310.02209    
     61000   0              7.9460001      3.1598076      308.9092     
     61100   0              7.9079722      3.1283018      307.43083    
     61200   0              7.8618363      3.0889852      305.63725    
     61300   0              7.8092647      3.0436394      303.59347    
     61400   0              7.7522705      2.9943484      301.37776    
     61500   0              7.693135       2.9433969      299.07881    
     61600   0              7.6343023      2.8931462      296.79162    
     61700   0              7.5782575      2.8459086      294.61282    
     61800   0              7.5274077      2.8038427      292.63598    
     61900   0              7.4839927      2.7688916      290.94818    
     62000   0              7.4500404      2.7427734      289.62824    
     62100   0              7.4273719      2.7270238      288.74698    
     62200   0              7.4176499      2.7230782      288.36903    
     62300   0              7.4224464      2.7323731      288.5555     
     62400   0              7.4432964      2.7564353      289.36607    
     62500   0              7.4816739      2.796904       290.85803    
     62600   0              7.5387999      2.8553963      293.07887    
     62700   0              7.6151769      2.9330949      296.0481     
     62800   0              7.7098124      3.0299669      299.72716    
     62900   0              7.8193205      3.1437162      303.9844     
     63000   0              7.9373986      3.2689142      308.57481    
     63100   0              8.055248       3.3969804      313.15633    
     63200   0              8.1630124      3.5173518      317.34579    
     63300   0              8.2515506      3.6193775      320.78781    
     63400   0              8.3136375      3.6939697      323.2015     
     63500   0              8.3442122      3.7343726      324.39012    
     63600   0              8.3399249      3.7360954      324.22345    
     63700   0              8.2984492      3.6964398      322.61104    
     63800   0              8.2179291      3.6140693      319.48073    
     63900   0              8.0969482      3.4890987      314.77748    
     64000   0              7.935788       3.3244742      308.5122     
     64100   0              7.7400283      3.1293689      300.90183    
     64200   0              7.5256104      2.9228924      292.56611    
     64300   0              7.3192189      2.7319291      284.54242    
     64400   0              7.1481213      2.5799508      277.89082    
     64500   0              7.0271246      2.4766473      273.18694    
     64600   0              6.9559906      2.4186174      270.42153    
     64700   0              6.9227567      2.3955917      269.12953    
     64800   0              6.9239788      2.4004087      269.17704    
     64900   0              6.9503609      2.4269756      270.20267    
     65000   0              6.9963405      2.4708659      271.99018    
     65100   0              7.0574931      2.5287127      274.36755    
     65200   0              7.1297758      2.5974334      277.17762    
     65300   0              7.2091493      2.6738024      280.26335    
     65400   0              7.2915525      2.7543571      283.46686    
     65500   0              7.3730994      2.835542       286.63708    
     65600   0              7.4503413      2.9139661      289.63994    
     65700   0              7.5204649      2.9866485      292.36607    
     65800   0              7.5813689      3.0511734      294.73378    
     65900   0              7.6316297      3.1057406      296.68772    
     66000   0              7.6932447      3.1570123      299.08307    
     66100   0              7.7148254      3.1830607      299.92204    
     66200   0              7.7248816      3.1973319      300.31299    
     66300   0              7.7136954      3.1939114      299.87811    
     66400   0              7.6935016      3.1769537      299.09306    
     66500   0              7.665193       3.1516805      297.99253    
     66600   0              7.6543118      3.127005       297.56951    
     66700   0              7.6084454      3.0841504      295.78641    
     66800   0              7.5594884      3.0384739      293.88315    
     66900   0              7.5095436      2.9921388      291.94149    
     67000   0              7.460679       2.9472034      290.04183    
     67100   0              7.4148362      2.9055328      288.25964    
     67200   0              7.373753       2.8687377      286.66249    
     67300   0              7.338913       2.8381462      285.30805    
     67400   0              7.3115247      2.8148081      284.2433     
     67500   0              7.2925258      2.7995226      283.5047     
     67600   0              7.2826059      2.7928799      283.11905    
     67700   0              7.2822365      2.7953044      283.10469    
     67800   0              7.2916978      2.8070907      283.47251    
     67900   0              7.3110961      2.8284244      284.22664    
     68000   0              7.3403617      2.8593802      285.36437    
     68100   0              7.3792218      2.8998913      286.8751     
     68200   0              7.4271445      2.9496818      288.73814    
     68300   0              7.4832515      3.0081606      290.91936    
     68400   0              7.5462124      3.0742807      293.36703    
     68500   0              7.6141417      3.1463878      296.00786    
     68600   0              7.6845348      3.2220934      298.74446    
     68700   0              7.7542761      3.2982198      301.45573    
     68800   0              7.8197313      3.3708461      304.00037    
     68900   0              7.8768977      3.4354501      306.22278    
     69000   0              7.9215593      3.4871015      307.95905    
     69100   0              7.9493933      3.5206555      309.04112    
     69200   0              7.9560274      3.5309417      309.29903    
     69300   0              7.9371441      3.5130498      308.56492    
     69400   0              7.8888546      3.4629491      306.68762    
     69500   0              7.8086518      3.3787281      303.56964    
     69600   0              7.697098       3.2624635      299.23287    
     69700   0              7.5597417      3.1219075      293.893      
     69800   0              7.4077726      2.9702927      287.98504    
     69900   0              7.2559165      2.823142       282.08147    
     70000   0              7.1181724      2.6935852      276.72652    
     70100   0              7.0042552      2.589407       272.29787    
     70200   0              6.9188404      2.5132672      268.97728    
     70300   0              6.863002       2.4647469      266.8065     
     70400   0              6.8360625      2.442331       265.7592     
     70500   0              6.8367863      2.4445156      265.78734    
     70600   0              6.86377        2.4701004      266.83636    
     70700   0              6.9152491      2.5179408      268.83767    
     70800   0              6.9885874      2.586385       271.68877    
     70900   0              7.0797365      2.6726076      275.23229    
     71000   0              7.1830151      2.7721436      279.24735    
     71100   0              7.2914979      2.8789595      283.46474    
     71200   0              7.3979892      2.9861836      287.6047     
     71300   0              7.4961499      3.0871998      291.4208     
     71400   0              7.5812411      3.1765698      294.72881    
     71500   0              7.6502594      3.2504304      297.41197    
     71600   0              7.7016272      3.3064003      299.40895    
     71700   0              7.7347481      3.3432611      300.69656    
     71800   0              7.7496502      3.3606489      301.2759     
     71900   0              7.7467927      3.3588697      301.16481    
     72000   0              7.72702        3.3388419      300.39612    
     72100   0              7.6916133      3.3021215      299.01965    
     72200   0              7.6423841      3.2509496      297.10581    
     72300   0              7.5817512      3.1882605      294.74864    
     72400   0              7.5157973      3.1169561      292.18461    
     72500   0              7.4384561      3.0387368      289.17789    
     72600   0              7.3605497      2.9610805      286.1492     
     72700   0              7.2860486      2.8879239      283.25289    
     72800   0              7.2184902      2.8225533      280.62648    
     72900   0              7.1607592      2.767462       278.38213    
     73000   0              7.1150177      2.7243748      276.60388    
     73100   0              7.0827599      2.6943853      275.34982    
     73200   0              7.0649291      2.6781321      274.65664    
     73300   0              7.062034       2.6759506      274.54408    
     73400   0              7.074219       2.6879605      275.01779    
     73500   0              7.1012673      2.7140738      276.06932    
     73600   0              7.1425323      2.7539182      277.67354    
     73700   0              7.1968128      2.8066875      279.78375    
     73800   0              7.2622136      2.8709495      282.32628    
     73900   0              7.3360509      2.9444702      285.19678    
     74000   0              7.4148762      3.0241346      288.2612     
     74100   0              7.4946606      3.1060338      291.3629     
     74200   0              7.571124       3.1857381      294.3355     
     74300   0              7.6401259      3.2587001      297.01802    
     74400   0              7.698008       3.3206766      299.26825    
     74500   0              7.7418017      3.3680543      300.97078    
     74600   0              7.7692572      3.3979995      302.03814    
     74700   0              7.7786835      3.4083863      302.4046     
     74800   0              7.768607       3.3975007      302.01286    
     74900   0              7.7458949      3.3663929      301.1299     
     75000   0              7.6866492      3.3026953      298.82666    
     75100   0              7.6003993      3.2112053      295.47361    
     75200   0              7.4853329      3.0914833      291.00028    
     75300   0              7.3433655      2.9474587      285.48114    
     75400   0              7.135415       2.7633059      277.39685    
     75500   0              6.9601482      2.597168       270.58317    
     75600   0              6.8066584      2.4566351      264.61609    
     75700   0              6.6896762      2.3525513      260.06828    
     75800   0              6.6146935      2.2870961      257.15325    
     75900   0              6.580976       2.2577776      255.84244    
     76000   0              6.5852586      2.2609711      256.00893    
     76100   0              6.6235962      2.2933447      257.49935    
     76200   0              6.6914826      2.3516883      260.1385     
     76300   0              6.7831635      2.43201        263.70269    
     76400   0              6.8911117      2.5286911      267.8993     
     76500   0              7.0064558      2.6344488      272.38342    
     76600   0              7.1160928      2.737032       276.64568    
     76700   0              7.2168184      2.8333307      280.56149    
     76800   0              7.3070957      2.9211129      284.07112    
     76900   0              7.3851734      2.9980596      287.10647    
     77000   0              7.4506427      3.0631973      289.65166    
     77100   0              7.5037197      3.1162694      291.71509    
     77200   0              7.5447954      3.1573034      293.31195    
     77300   0              7.5742511      3.1864185      294.45707    
     77400   0              7.5924418      3.2037984      295.16425    
     77500   0              7.5997529      3.2097424      295.44848    
     77600   0              7.5966751      3.2047367      295.32883    
     77700   0              7.5838737      3.1895158      294.83116    
     77800   0              7.5696802      3.1661313      294.27937    
     77900   0              7.5367013      3.1300753      292.99728    
     78000   0              7.4976891      3.0880589      291.48064    
     78100   0              7.454479       3.0420986      289.8008     
     78200   0              7.4090838      2.9943347      288.03601    
     78300   0              7.3636026      2.9469192      286.26788    
     78400   0              7.3201142      2.9019027      284.57722    
     78500   0              7.2608156      2.8526011      282.27193    
     78600   0              7.2220867      2.812952       280.7663     
     78700   0              7.1912005      2.7811504      279.56557    
     78800   0              7.1695768      2.7583938      278.72492    
     78900   0              7.1583383      2.7456149      278.28802    
     79000   0              7.1642728      2.7402639      278.51872    
     79100   0              7.1622104      2.7361585      278.43855    
     79200   0              7.1723606      2.7436219      278.83315    
     79300   0              7.1955314      2.7634733      279.73394    
     79400   0              7.2324818      2.7965935      281.17042    
     79500   0              7.2839073      2.8439305      283.16964    
     79600   0              7.3503174      2.9063973      285.75141    
     79700   0              7.4317487      2.9845929      288.91713    
     79800   0              7.5272912      3.0782941      292.63145    
     79900   0              7.6345146      3.1857622      296.79988    
     80000   0              7.7490365      3.3030872      301.25204    
     80100   0              7.8645545      3.4239401      305.74292    
     80200   0              7.9734847      3.5400175      309.9777     
     80300   0              8.0679743      3.6420784      313.65108    
     80400   0              8.140788       3.721091       316.48179    
     80500   0              8.1856893      3.7689902      318.22738    
     80600   0              8.1972989      3.7789028      318.67871    
     80700   0              8.1879679      3.750111       318.31596    
     80800   0              8.1133054      3.6591088      315.41338    
     80900   0              7.9872983      3.5160476      310.51472    
     81000   0              7.8210379      3.333575       304.05117    
     81100   0              7.6304222      3.1320346      296.64078    
     81200   0              7.4405982      2.9388602      289.26117    
     81300   0              7.276628       2.7776201      282.88665    
     81400   0              7.1533921      2.6594346      278.09573    
     81500   0              7.0733872      2.583504       274.98545    
     81600   0              7.0313754      2.5429769      273.3522     
     81700   0              7.0199013      2.5301278      272.90613    
     81800   0              7.0324786      2.5388318      273.39508    
     81900   0              7.06448        2.5650056      274.63917    
     82000   0              7.1127871      2.6061007      276.51716    
     82100   0              7.1750408      2.6603408      278.93734    
     82200   0              7.2487778      2.7256215      281.80395    
     82300   0              7.3299326      2.7990286      284.95892    
     82400   0              7.416855       2.8790477      288.33813    
     82500   0              7.5057932      2.9622665      291.7957     
     82600   0              7.5927626      3.0448073      295.17672    
     82700   0              7.6738926      3.1226588      298.33074    
     82800   0              7.7457371      3.1920311      301.12377    
     82900   0              7.805476       3.2496448      303.44618    
     83000   0              7.8509933      3.2929113      305.21571    
     83100   0              7.8808625      3.3200078      306.37691    
     83200   0              7.8942912      3.3298879      306.89897    
     83300   0              7.8910736      3.3222713      306.77388    
     83400   0              7.8715815      3.2976439      306.0161     
     83500   0              7.8368026      3.2572795      304.66404    
     83600   0              7.7884127      3.203266       302.78283    
     83700   0              7.7288403      3.1384946      300.46689    
     83800   0              7.6612649      3.06656        297.83982    
     83900   0              7.5894905      2.9915316      295.04952    
     84000   0              7.5176729      2.9176045      292.25753    
     84100   0              7.4499453      2.8487043      289.62455    
     84200   0              7.3900432      2.7881553      287.29579    
     84300   0              7.3410364      2.7385037      285.3906     
     84400   0              7.3052245      2.7015168      283.99837    
     84500   0              7.2841811      2.6783137      283.18029    
     84600   0              7.2788824      2.669551       282.9743     
     84700   0              7.2898488      2.675594       283.40063    
     84800   0              7.3172421      2.6966247      284.46557    
     84900   0              7.3608841      2.7326627      286.1622     
     85000   0              7.420178       2.7834804      288.46731    
     85100   0              7.4939374      2.8484098      291.33479    
     85200   0              7.5801565      2.9260626      294.68665    
     85300   0              7.6758049      3.0140299      298.40508    
     85400   0              7.7767657      3.1086866      302.33004    
     85500   0              7.878019       3.2052323      306.26637    
     85600   0              7.9740729      3.2980313      310.00057    
     85700   0              8.0595101      3.381167       313.32203    
     85800   0              8.1294448      3.4490116      316.04081    
     85900   0              8.1797399      3.4966158      317.99609    
     86000   0              8.2069592      3.5198405      319.05427    
     86100   0              8.2081569      3.5153004      319.10083    
     86200   0              8.1806906      3.4803127      318.03305    
     86300   0              8.1223277      3.4131405      315.76413    
     86400   0              8.0319945      3.3138682      312.25233    
     86500   0              7.9114231      3.1860277      307.56499    
     86600   0              7.7672987      3.0383135      301.962      
     86700   0              7.6122708      2.8846203      295.93512    
     86800   0              7.4628301      2.7409367      290.12546    
     86900   0              7.3344177      2.6204344      285.13329    
     87000   0              7.2371839      2.5303296      281.35322    
     87100   0              7.1751005      2.4722231      278.93967    
     87200   0              7.1477017      2.4443746      277.87451    
     87300   0              7.1522406      2.4437734      278.05096    
     87400   0              7.1850004      2.4671647      279.32453    
     87500   0              7.2417         2.5112047      281.52879    
     87600   0              7.3174257      2.5721936      284.47271    
     87700   0              7.4065522      2.6457967      287.9376     
     87800   0              7.5496171      2.742259       293.49939    
     87900   0              7.6375335      2.8168779      296.91724    
     88000   0              7.722992       2.8902262      300.23953    
     88100   0              7.8025036      2.9589114      303.33063    
     88200   0              7.8736641      3.0204187      306.09707    
     88300   0              7.9350208      3.0730777      308.48237    
     88400   0              7.9858185      3.1158906      310.45719    
     88500   0              8.0257476      3.1483309      312.00948    
     88600   0              8.0547639      3.1701889      313.13751    
     88700   0              8.0729957      3.1814885      313.84629    
     88800   0              8.0807228      3.1824658      314.1467     
     88900   0              8.0784005      3.1735881      314.05641    
     89000   0              8.0776484      3.159265       314.02717    
     89100   0              8.0535566      3.1293288      313.09058    
     89200   0              8.0223816      3.0927965      311.87862    
     89300   0              7.9858804      3.0514977      310.45959    
     89400   0              7.9460767      3.007471       308.91219    
     89500   0              7.9051732      2.9628564      307.32202    
     89600   0              7.8654356      2.9197738      305.77718    
     89700   0              7.7630093      2.8514058      301.79525    
     89800   0              7.7248726      2.8106999      300.31264    
     89900   0              7.6959173      2.7786313      299.18697    
     90000   0              7.6778529      2.7565347      298.4847     
     90100   0              7.6719543      2.7453803      298.25538    
     90200   0              7.6790797      2.7458261      298.53239    
     90300   0              7.6996751      2.7582449      299.33306    
     90400   0              7.7337428      2.7827073      300.65748    
     90500   0              7.7807685      2.8189117      302.48565    
     90600   0              7.8396156      2.8660668      304.7734     
     90700   0              7.9265379      2.926163       308.15259    
     90800   0              7.9962636      2.9841826      310.86325    
     90900   0              8.0698344      3.0463994      313.7234     
     91000   0              8.1438129      3.109674       316.59939    
     91100   0              8.214486       3.1704566      319.34688    
     91200   0              8.2781232      3.2250324      321.82085    
     91300   0              8.3312175      3.2697889      323.88494    
     91400   0              8.3706682      3.3014587      325.41863    
     91500   0              8.3939052      3.3173193      326.32199    
     91600   0              8.3989866      3.3153681      326.51954    
     91700   0              8.3847255      3.2945082      325.96512    
     91800   0              8.3508921      3.2547762      324.64981    
     91900   0              8.2984924      3.197594       322.61272    
     92000   0              8.2300492      3.1259499      319.95192    
     92100   0              8.1497172      3.0443505      316.82892    
     92200   0              8.0630478      2.9584025      313.45956    
     92300   0              7.9763462      2.8740525      310.08894    
     92400   0              7.8957989      2.7967346      306.95758    
     92500   0              7.8267126      2.730758       304.27178    
     92600   0              7.7731258      2.6791199      302.18853    
     92700   0              7.7378167      2.6436843      300.81586    
     92800   0              7.7225355      2.6255179      300.22178    
     92900   0              7.7282505      2.6251878      300.44396    
     93000   0              7.7552687      2.6429099      301.49432    
     93100   0              7.8031806      2.6785126      303.35695    
     93200   0              7.8706551      2.7312357      305.98009    
     93300   0              7.955174       2.7994273      309.26585    
     93400   0              8.0453788      2.8758784      312.77266    
     93500   0              8.1473874      2.9618723      316.73835    
     93600   0              8.2518855      3.0515915      320.80083    
     93700   0              8.3528404      3.1395179      324.72556    
     93800   0              8.4445547      3.2200939      328.29105    
     93900   0              8.5221683      3.2882849      331.30836    
     94000   0              8.5819056      3.3399665      333.63071    
     94100   0              8.6210983      3.3721037      335.15437    
     94200   0              8.6380967      3.3827936      335.8152     
     94300   0              8.6321916      3.3712721      335.58563    
     94400   0              8.603628       3.3379569      334.47519    
     94500   0              8.5537362      3.284549       332.53559    
     94600   0              8.4851359      3.2141403      329.86868    
     94700   0              8.4018962      3.131213       326.63265    
     94800   0              8.3094784      3.0413872      323.03981    
     94900   0              8.2143238      2.9508516      319.34058    
     95000   0              8.1231104      2.8655806      315.79456    
     95100   0              8.0419062      2.7905999      312.63766    
     95200   0              7.975528       2.7295623      310.05714    
     95300   0              7.9197856      2.6813904      307.89009    
     95400   0              7.8861951      2.6493353      306.58422    
     95500   0              7.8740955      2.6354629      306.11384    
     95600   0              7.8834831      2.6395679      306.47879    
     95700   0              7.9135569      2.661          307.64794    
     95800   0              7.9627521      2.698663       309.56046    
     95900   0              8.0286406      2.7508686      312.12194    
     96000   0              8.1077785      2.8151097      315.19851    
     96100   0              8.1956315      2.8878692      318.61389    
     96200   0              8.286733       2.9646222      322.15556    
     96300   0              8.3751715      3.0401666      325.5937     
     96400   0              8.455335       3.10927        328.71014    
     96500   0              8.5226614      3.167429       331.32753    
     96600   0              8.5741161      3.2114481      333.32789    
     96700   0              8.608284       3.2396659      334.6562     
     96800   0              8.6251614      3.2518546      335.31233    
     96900   0              8.6258276      3.2489429      335.33822    
     97000   0              8.6121296      3.2327027      334.8057     
     97100   0              8.5864344      3.2054702      333.80677    
     97200   0              8.561988       3.1737895      332.85639    
     97300   0              8.5165312      3.1290151      331.08921    
     97400   0              8.4679701      3.0819413      329.20134    
     97500   0              8.4192192      3.0352534      327.3061     
     97600   0              8.3728597      2.9912418      325.50383    
     97700   0              8.331035       2.9517293      323.87785    
     97800   0              8.295402       2.9180587      322.49258    
     97900   0              8.2671328      2.8911263      321.39358    
     98000   0              8.2469511      2.8714409      320.609      
     98100   0              8.230768       2.8564801      319.97986    
     98200   0              8.2238883      2.8485532      319.7124     
     98300   0              8.2256571      2.848164       319.78117    
     98400   0              8.2355912      2.8548871      320.16737    
     98500   0              8.2529453      2.8681024      320.84203    
     98600   0              8.2767354      2.8870054      321.76689    
     98700   0              8.3062852      2.910302       322.91567    
     98800   0              8.3352309      2.9340115      324.04097    
     98900   0              8.366796       2.9602109      325.26809    
     99000   0              8.3995588      2.9876804      326.54178    
     99100   0              8.4320578      3.01514        327.80521    
     99200   0              8.462849       3.0412982      329.00226    
     99300   0              8.4905603      3.0649033      330.07956    
     99400   0              8.5139352      3.0847883      330.98829    
     99500   0              8.5136147      3.0925813      330.97583    
     99600   0              8.5211938      3.0984518      331.27047    
     99700   0              8.521898       3.0981933      331.29785    
     99800   0              8.5151147      3.0912541      331.03414    
     99900   0              8.5002394      3.0771168      330.45585    
    100000   0              8.4766283      3.0552611      329.53794    
    100008   0              8.4743415      3.0531636      329.44904    
Loop time of 1.70419 on 1 procs for 100000 steps with 200 atoms

Performance: 5069.866 ns/day, 0.005 hours/ns, 58679.006 timesteps/s, 11.736 Matom-step/s
95.4% CPU use with 1 MPI tasks x 1 OpenMP threads

MPI task timing breakdown:
Section |  min time  |  avg time  |  max time  |%varavg| %total
---------------------------------------------------------------
Pair    | 0.11891    | 0.11891    | 0.11891    |   0.0 |  6.98
Neigh   | 0.33612    | 0.33612    | 0.33612    |   0.0 | 19.72
Comm    | 0.069536   | 0.069536   | 0.069536   |   0.0 |  4.08
Output  | 0.072733   | 0.072733   | 0.072733   |   0.0 |  4.27
Modify  | 1.0228     | 1.0228     | 1.0228     |   0.0 | 60.02
Other   |            | 0.08405    |            |       |  4.93

Nlocal:            200 ave         200 max         200 min
Histogram: 1 0 0 0 0 0 0 0 0 0
Nghost:             50 ave          50 max          50 min
Histogram: 1 0 0 0 0 0 0 0 0 0
Neighs:              6 ave           6 max           6 min
Histogram: 1 0 0 0 0 0 0 0 0 0

Total # of neighbors = 6
Ave neighs/atom = 0.03
Neighbor list builds = 2266
Dangerous builds = 0

# --- COOLING (Condensation) ---
unfix 1
fix 1 all npt temp 100.0 50.0 $(10000.0*dt) iso 3.0 3.0 $(1000.0*dt)
fix 1 all npt temp 100.0 50.0 10 iso 3.0 3.0 $(1000.0*dt)
fix 1 all npt temp 100.0 50.0 10 iso 3.0 3.0 1
run 100000
Generated 0 of 0 mixed pair_coeff terms from geometric mixing rule
Per MPI rank memory allocation (min/avg/max) = 5.871 | 5.871 | 5.871 Mbytes
   Step         PotEng         TotEng         Press           Temp     
    100008   0              8.4743415      3.0531636      329.44904    
    100100   0              8.467489       3.047897       329.18264    
    100200   0              8.4454048      3.0310669      328.32409    
    100300   0              8.4108729      3.0052384      326.98163    
    100400   0              8.3683019      2.974401       325.32664    
    100500   0              8.3230511      2.9433116      323.56746    
    100600   0              8.2806808      2.9168045      321.92027    
    100700   0              8.2462183      2.8991775      320.58051    
    100800   0              8.2235612      2.8937453      319.69969    
    100900   0              8.215054       2.9025534      319.36896    
    101000   0              8.2211878      2.926162       319.60742    
    101100   0              8.2403564      2.9634055      320.35262    
    101200   0              8.2686822      3.011122       321.45382    
    101300   0              8.3000582      3.0639973      322.67359    
    101400   0              8.3266142      3.1147801      323.70599    
    101500   0              8.3396782      3.1550478      324.21386    
    101600   0              8.3123784      3.1636133      323.15255    
    101700   0              8.2488633      3.1338897      320.68333    
    101800   0              8.1549341      3.0761169      317.03174    
    101900   0              8.035738       2.9954123      312.39786    
    102000   0              7.9022886      2.9024256      307.20988    
    102100   0              7.7707694      2.8120919      302.09693    
    102200   0              7.6594216      2.7403975      297.76816    
    102300   0              7.5844385      2.7009438      294.85311    
    102400   0              7.5569449      2.7030845      293.78427    
    102500   0              7.5810259      2.7509976      294.72045    
    102600   0              7.6514125      2.8417612      297.4568     
    102700   0              7.7516608      2.9626503      301.35406    
    102800   0              7.8566908      3.091489       305.43721    
    102900   0              7.9408514      3.2029332      308.70904    
    103000   0              7.9858579      3.2768145      310.45872    
    103100   0              7.983305       3.3025067      310.35948    
    103200   0              7.9331273      3.2788331      308.40876    
    103300   0              7.8416813      3.2124927      304.8537     
    103400   0              7.7206467      3.1164311      300.14835    
    103500   0              7.5857257      3.0075589      294.90315    
[...]
    374000   0              0.14043458     2.2993686      5.4595435    
    374100   0              0.1330988      2.0832689      5.1743576    
    374200   0              0.1322352      2.1227553      5.140784     
    374300   0              0.13370893     2.2598675      5.1980771    
    374400   0              0.13527517     2.4091704      5.258966     
    374500   0              0.13725026     2.4498079      5.3357497    
    374600   0              0.13370832     2.3769484      5.198053     
    374700   0              0.13279411     2.4197858      5.1625123    
    374800   0              0.13453759     2.4189931      5.2302919    
    374900   0              0.13587127     2.3770039      5.2821403    
    375000   0              0.1299066      2.2009234      5.0502571    
    375100   1.4214474      1.552427       163.71002      5.0919683    
    375200   0              0.13385695     2.2485181      5.2038312    
    375300   0              0.13450756     2.162361       5.2291245    
    375400   0              0.13256172     2.1593136      5.153478     
    375500   0              0.13344852     2.2734673      5.1879532    
    375600   0              0.13597394     2.2830821      5.2861315    
    375700   0              0.13461377     2.3057501      5.2332534    
    375800   0              0.13509801     2.4092174      5.2520788    
    375900   0              0.13583567     2.5290188      5.2807562    
    376000   0              0.14962419     2.6766897      5.8167997    
    376100   0              0.14098974     2.3906424      5.4811261    
    376200   0              0.14511578     2.3966664      5.6415302    
    376300   0              0.1403357      2.283894       5.4556995    
    376400   0              0.14697632     2.4098512      5.7138609    
    376500   0              0.14173664     2.2807056      5.5101625    
    376600   0              0.14082487     2.3252935      5.4747166    
    376700   0              0.14407766     2.3123188      5.6011722    
    376800   0              0.15166506     2.4034462      5.8961406    
    376900   0              0.146322       2.2777587      5.6884232    
    377000   0              0.14554418     2.3295157      5.6581849    
    377100   0              0.15196685     2.4022595      5.9078727    
    377200   0              0.15498847     2.3556632      6.0253417    
    377300   0              0.1501446      2.2563841      5.8370311    
    377400   0              0.14979257     2.3258126      5.8233455    
    377500   0              0.15088174     2.4555307      5.8656881    
    377600   0              0.15170209     2.5808961      5.8975801    
    377700   0              0.15168216     2.6755458      5.8968055    
    377800   0              0.1508886      2.7386961      5.8659549    
    377900   0              0.1495477      2.7778577      5.8138261    
    378000   0              0.1478633      2.8008396      5.7483432    
    378100   0              0.14870763     2.7047515      5.7811672    
    378200   0              0.14304551     2.5465969      5.5610465    
    378300   0              0.13953217     2.427868       5.4244617    
    378400   0              0.13401428     2.2768928      5.2099478    
    378500   0              0.13275746     2.3061085      5.1610873    
    378600   0              0.13317096     2.4094884      5.1771626    
    378700   0              0.14438421     2.6554761      5.6130899    
    378800   0              0.13889082     2.4990516      5.3995284    
    378900   0              0.13664971     2.487565       5.3124028    
    379000   0              0.13588285     2.5425378      5.2825905    
    379100   0              0.14054336     2.5283633      5.4637728    
    379200   0              0.13696331     2.4574578      5.3245942    
    379300   0              0.13797326     2.4840469      5.3638572    
    379400   0              0.13207552     2.3089315      5.1345762    
    379500   0              0.1304611      2.3206131      5.0718141    
    379600   0              0.13071573     2.4164488      5.0817131    
    379700   0              0.13133034     2.5332843      5.1056067    
    379800   0              0.13151398     2.6338815      5.112746     
    379900   0              0.13507134     2.6877842      5.2510422    
    380000   0              0.12968576     2.51603        5.0416717    
    380100   0              0.12733262     2.4901902      4.950191     
    380200   0              0.1367893      2.6781353      5.3178295    
    380300   0              0.13360211     2.4231318      5.1939241    
    380400   0              0.12744311     2.172513       4.9544866    
    380500   0              0.12312578     2.0650033      4.7866458    
    380600   0              0.12300988     2.1336272      4.7821399    
    380700   0              0.12411443     2.2592696      4.8250804    
    380800   0              0.13143075     2.3464456      5.1095102    
    380900   0              0.12972195     2.3518319      5.0430788    
    381000   0              0.13177974     2.3969049      5.1230774    
    381100   0              0.127488       2.2854294      4.9562317    
    381200   0              0.1265921      2.3252935      4.9214026    
    381300   0              0.13073012     2.3327297      5.0822726    
    381400   0              0.12850414     2.3142902      4.9957353    
    381500   0              0.12992367     2.2862419      5.050921     
    381600   0              0.12719694     2.2454485      4.9449163    
    381700   0              0.12637693     2.1620577      4.9130375    
    381800   0              0.12479364     2.1693904      4.8514856    
    381900   0              0.12565107     2.2847873      4.8848191    
    382000   0              0.13580093     2.5137436      5.2794056    
    382100   0              0.13171799     2.4120185      5.1206769    
    382200   0              0.13041562     2.4363698      5.0700459    
    382300   0              0.13025361     2.5149118      5.0637476    
    382400   0              0.13515206     2.5101755      5.2541799    
    382500   0              0.13205486     2.453498       5.1337731    
    382600   0              0.13103372     2.4921208      5.0940752    
    382700   0              0.1389469      2.5101947      5.4017084    
    382800   0              0.13062244     2.2287211      5.0780862    
    382900   0              0.13063048     2.1669967      5.0783989    
    383000   0              0.12741429     2.1090944      4.9533661    
    383100   0              0.1277453      2.1984222      4.9662345    
    383200   0              0.12903001     2.3341874      5.016179     
    383300   0              0.13645547     2.4313213      5.3048514    
    383400   0              0.13397224     2.4054283      5.2083134    
    383500   0              0.13792952     2.4370575      5.3621566    
    383600   0              0.13376361     2.3385468      5.2002028    
    383700   0              0.13280802     2.3794383      5.163053     
    383800   0              0.13819764     2.4102707      5.3725804    
    383900   0              0.13528842     2.3679434      5.259481     
    384000   0              0.12590254     2.2167186      4.8945953    
    384100   0              0.13124192     2.2486068      5.1021692    
    384200   0              0.12538661     2.0787493      4.8745378    
    384300   0              0.12480658     2.1283694      4.8519886    
    384400   0              0.13470954     2.3089518      5.2369768    
    384500   0              0.13347737     2.2018716      5.1890749    
    384600   0              0.12994107     2.0233741      5.0515972    
    384700   0              0.12754936     2.0009334      4.958617     
    384800   0              0.12874109     2.1210472      5.0049468    
    384900   0              0.1305893      2.2762565      5.0767978    
    385000   0              0.13181841     2.4132555      5.1245808    
    385100   0              0.13224867     2.5198726      5.1413077    
    385200   0              0.13733252     2.5402847      5.3389477    
    385300   0              0.13404742     2.4772886      5.211236     
    385400   0              0.13874841     2.4577597      5.3939922    
    385500   0              0.13514746     2.3847305      5.2540014    
    385600   0              0.14396541     2.420602       5.5968086    
    385700   0              0.13578028     2.1676428      5.2786029    
    385800   0              0.1343035      2.1856949      5.2211915    
    385900   0              0.1349355      2.2914631      5.2457612    
    386000   0              0.13879224     2.353213       5.395696     
    386100   0              0.13602066     2.3189743      5.2879479    
    386200   0              0.13572465     2.3900967      5.2764402    
    386300   0              0.13375016     2.3077318      5.1996799    
    386400   0              0.13151664     2.2931695      5.1128492    
    386500   0              0.14041019     2.4351173      5.4585956    
    386600   0              0.13422156     2.1654003      5.218006     
    386700   0              0.13186206     2.1470091      5.126278     
    386800   0              0.13929265     2.3174886      5.41515      
    386900   0              0.13520071     2.2296186      5.2560714    
    387000   0              0.13482087     2.2944503      5.2413047    
    387100   0              0.13564428     2.4141518      5.2733155    
    387200   0              0.13631623     2.5328727      5.2994384    
    387300   0              0.14179013     2.610413       5.5122419    
    387400   0              0.13719682     2.4923157      5.3336724    
    387500   0              0.13834149     2.4927691      5.3781727    
    387600   0              0.13246039     2.3185356      5.1495385    
    387700   0              0.13081732     2.3294053      5.0856625    
    387800   0              0.13092056     2.4189127      5.0896759    
    387900   0              0.1388003      2.5388052      5.3960091    
    388000   0              0.13479074     2.4458282      5.2401336    
    388100   0              0.1333848      2.4694698      5.1854762    
    388200   0              0.14519594     2.7729164      5.6446465    
    388300   0              0.13778773     2.5222233      5.3566444    
    388400   0              0.13979569     2.4305534      5.4347063    
    388500   0              0.13026686     2.1127543      5.0642627    
    388600   0              0.13113544     2.1277207      5.0980299    
    388700   0              0.12712014     2.0406438      4.9419308    
    388800   0              0.12742062     2.1271864      4.9536123    
    388900   0              0.13714423     2.1770655      5.3316276    
    389000   0              0.12850732     1.918381       4.9958587    
    389100   0              0.12807902     1.9714118      4.9792082    
    389200   0              0.12971831     2.1085221      5.0429372    
    389300   0              0.137761       2.3619598      5.3556055    
    389400   0              0.13301116     2.2424259      5.1709503    
    389500   0              0.13217321     2.2872337      5.1383743    
    389600   0              0.13261675     2.3898528      5.1556171    
    389700   0              0.13310202     2.4989737      5.1744828    
    389800   0              0.14595071     2.816894       5.673989     
    389900   0              0.13893148     2.581619       5.4011089    
    390000   0              0.13613501     2.4443502      5.2923934    
    390100   0              0.13075516     2.291058       5.0832461    
    390200   0              0.12940528     2.3137132      5.0307678    
    390300   0              0.12956601     2.4051463      5.0370163    
    390400   0              0.12994815     2.5107385      5.0518725    
    390500   0              0.13893654     2.6939704      5.4013058    
    390600   0              0.13348347     2.5265737      5.189312     
    390700   0              0.14036547     2.6170933      5.4568568    
    390800   0              0.13379188     2.4066198      5.2013015    
    390900   0              0.13149141     2.3886203      5.1118683    
    391000   0              0.13757433     2.4334544      5.3483485    
    391100   0              0.14059295     2.4268681      5.4657005    
    391200   0              0.13419116     2.2395323      5.2168242    
    391300   0              0.13629011     2.292614       5.2984231    
    391400   0              0.13115153     2.1591889      5.0986554    
    391500   0              0.12389187     1.9661952      4.8164283    
    391600   0              0.12684155     1.9648255      4.9311001    
    391700   0              0.12578874     1.9942484      4.890171     
    391800   0              0.13235072     2.1472594      5.1452752    
    391900   0              0.13034705     2.141999       5.0673803    
    392000   0              0.13381782     2.1779173      5.2023099    
    392100   0              0.14405984     2.375496       5.6004795    
    392200   0              0.13800939     2.212069       5.3652617    
    392300   0              0.14354176     2.2801459      5.5803385    
    392400   0              0.13943603     2.1984573      5.420724     
    392500   0              0.14987799     2.4080175      5.8266664    
    392600   0              0.14480976     2.2912691      5.6296336    
    392700   0              0.14980887     2.2974129      5.8239793    
    392800   0              0.14672413     2.2620245      5.7040565    
    392900   0              0.1470241      2.3579487      5.7157185    
    393000   0              0.15373283     2.4405845      5.9765274    
    393100   0              0.15066051     2.4076176      5.8570877    
    393200   0              0.15016032     2.4773161      5.8376421    
    393300   0              0.15265568     2.5027391      5.9346518    
    393400   0              0.14814939     2.4102436      5.7594651    
    393500   0              0.1469264      2.4501383      5.71192      
    393600   0              0.14696394     2.5443862      5.7133796    
    393700   0              0.14304692     2.4594161      5.5611013    
    393800   0              0.13883867     2.3693413      5.3975012    
    393900   0              0.1441846      2.3944239      5.6053298    
    394000   0              0.14008343     2.3123995      5.4458922    
    394100   0              0.13938895     2.3700837      5.4188935    
    394200   0              0.14527995     2.3969508      5.6479127    
    394300   0              0.14277431     2.381871       5.5505032    
    394400   0              0.14797937     2.4378344      5.7528553    
    394500   0              0.14367205     2.3503832      5.5854039    
    394600   0              0.1427925      2.4021614      5.5512104    
    394700   0              0.14317964     2.5097996      5.566261     
    394800   0              0.14184191     2.4339216      5.5142552    
    394900   0              0.13876342     2.3913986      5.3945754    
    395000   0              0.13808481     2.451441       5.368194     
    395100   0              0.13819617     2.5488655      5.3725231    
    395200   0              0.14854372     2.7874461      5.7747951    
    395300   0              0.14168451     2.5708304      5.5081361    
    395400   0              0.13852109     2.5215853      5.3851547    
    395500   0              0.14072968     2.4712525      5.4710158    
    395600   0              0.13645602     2.3744608      5.3048728    
    395700   0              0.13526035     2.4101533      5.2583899    
    395800   0              0.13526387     2.5006436      5.2585268    
    395900   0              0.13982794     2.5254093      5.4359599    
    396000   0              0.1360775      2.4483008      5.2901577    
    396100   0              0.1399381      2.2766474      5.4402426    
    396200   0              0.13599642     2.1995838      5.2870055    
    396300   0              0.13875515     2.1772248      5.3942539    
    396400   0              0.1376871      2.0846862      5.3527325    
    396500   0              0.13974596     2.040326       5.432773     
    396600   0              0.13855932     2.0722516      5.3866408    
    396700   0              0.14551012     2.2518589      5.6568607    
    396800   0              0.14207175     2.2011024      5.5231904    
    396900   0              0.15107849     2.3659988      5.8733372    
    397000   0              0.14902448     2.3062921      5.7934851    
    397100   0              0.14210303     2.1256906      5.5244064    
    397200   0              0.14711617     2.2101588      5.7192976    
    397300   0              0.14319538     2.1442333      5.5668728    
    397400   0              0.14369842     2.2447385      5.5864289    
    397500   0              0.14535179     2.3969339      5.6507056    
    397600   0              0.15313252     2.5257398      5.9531897    
    397700   0              0.15731716     2.5360917      6.115872     
    397800   0              0.15008828     2.3413858      5.8348414    
    397900   0              0.14815116     2.3532518      5.7595338    
    398000   0              0.14981596     2.385294       5.8242549    
    398100   0              0.15101049     2.3510176      5.8706936    
    398200   0              0.1444097      2.1836212      5.6140808    
    398300   0              0.1507854      2.2749503      5.8619427    
    398400   0              0.14659028     2.201611       5.6988532    
    398500   0              0.14669245     2.2898719      5.7028251    
    398600   0              0.14800353     2.4308746      5.7537945    
    398700   0              0.15509015     2.5984778      6.0292944    
    398800   0              0.14955815     2.4646818      5.8142321    
    398900   0              0.15624547     2.59048        6.0742088    
    399000   0              0.15770147     2.5144199      6.1308124    
    399100   0              0.14843799     2.24557        5.7706848    
    399200   0              0.14630005     2.2492924      5.68757      
    399300   0              0.14675973     2.354278       5.7054405    
    399400   0              0.15775253     2.582635       6.1327973    
    399500   0              0.15230308     2.4572614      5.9209442    
    399600   0              0.15066987     2.3376143      5.8574515    
    399700   0              0.14782039     2.1677508      5.7466749    
    399800   0              0.14531051     2.1575175      5.6491005    
    399900   0              0.15141372     2.2456468      5.8863695    
    400000   0              0.14898086     2.2402105      5.7917894    
    400008   0              0.14895802     2.2461641      5.7909014    
Loop time of 1.4368 on 1 procs for 100000 steps with 200 atoms

Performance: 6013.357 ns/day, 0.004 hours/ns, 69599.040 timesteps/s, 13.920 Matom-step/s
95.0% CPU use with 1 MPI tasks x 1 OpenMP threads

MPI task timing breakdown:
Section |  min time  |  avg time  |  max time  |%varavg| %total
---------------------------------------------------------------
Pair    | 0.20036    | 0.20036    | 0.20036    |   0.0 | 13.94
Neigh   | 0.018149   | 0.018149   | 0.018149   |   0.0 |  1.26
Comm    | 0.080055   | 0.080055   | 0.080055   |   0.0 |  5.57
Output  | 0.072952   | 0.072952   | 0.072952   |   0.0 |  5.08
Modify  | 0.98487    | 0.98487    | 0.98487    |   0.0 | 68.55
Other   |            | 0.08042    |            |       |  5.60

Nlocal:            200 ave         200 max         200 min
Histogram: 1 0 0 0 0 0 0 0 0 0
Nghost:            144 ave         144 max         144 min
Histogram: 1 0 0 0 0 0 0 0 0 0
Neighs:             79 ave          79 max          79 min
Histogram: 1 0 0 0 0 0 0 0 0 0

Total # of neighbors = 79
Ave neighs/atom = 0.395
Neighbor list builds = 521
Dangerous builds = 0
Total wall time: 0:00:05
